<?xml version="1.0" encoding="UTF-8"?>

<!-- generated on 07/02/2015 18:56:26 by SUMO gui Version 0.22.0
<?xml version="1.0" encoding="UTF-8"?>

<configuration xmlns:xsi="http://www.w3.org/2001/XMLSchema-instance" xsi:noNamespaceSchemaLocation="http://sumo.dlr.de/xsd/sumo-gui.exeConfiguration.xsd">

    <input>
        <net-file value="grid10.net.xml"/>
        <route-files value="2grid.rou.xml"/>
    </input>

    <output>
        <tripinfo-output value="tripinfo.xml"/>
        <save-state.prefix value="state"/>
    </output>

    <time>
        <begin value="0"/>
    </time>

    <emissions>
        <phemlight-path value="./PHEMlight/"/>
    </emissions>

    <traci_server>
        <remote-port value="8876"/>
    </traci_server>

</configuration>
-->

<tripinfos xmlns:xsi="http://www.w3.org/2001/XMLSchema-instance" xsi:noNamespaceSchemaLocation="http://sumo.dlr.de/xsd/tripinfo_file.xsd">
    <tripinfo id="88" depart="17.00" departLane="0/9to1/9_0" departPos="5.10" departSpeed="0.00" departDelay="-0.60" arrival="127.00" arrivalLane="6/8to7/8_0" arrivalPos="103.90" arrivalSpeed="5.00" duration="110.00" routeLength="827.60" waitSteps="26" timeLoss="43.76" rerouteNo="0" devices="tripinfo_88" vType="DEFAULT_VEHTYPE" vaporized=""/>
    <tripinfo id="83" depart="16.00" departLane="4/3to4/4_0" departPos="5.10" departSpeed="0.00" departDelay="-0.60" arrival="129.00" arrivalLane="0/9to1/9_1" arrivalPos="105.40" arrivalSpeed="13.27" duration="113.00" routeLength="1140.80" waitSteps="4" timeLoss="20.60" rerouteNo="0" devices="tripinfo_83" vType="DEFAULT_VEHTYPE" vaporized=""/>
    <tripinfo id="3" depart="1.00" departLane="1/1to1/2_0" departPos="5.10" departSpeed="0.00" departDelay="0.40" arrival="153.00" arrivalLane="2/8to2/9_1" arrivalPos="103.90" arrivalSpeed="13.37" duration="152.00" routeLength="930.00" waitSteps="57" timeLoss="76.45" rerouteNo="0" devices="tripinfo_3" vType="DEFAULT_VEHTYPE" vaporized=""/>
    <tripinfo id="113" depart="24.00" departLane="1/1to2/1_0" departPos="5.10" departSpeed="0.00" departDelay="1.40" arrival="164.00" arrivalLane="8/1to9/1_1" arrivalPos="103.90" arrivalSpeed="13.79" duration="140.00" routeLength="826.10" waitSteps="56" timeLoss="72.26" rerouteNo="0" devices="tripinfo_113" vType="DEFAULT_VEHTYPE" vaporized=""/>
    <tripinfo id="89" depart="17.00" departLane="5/9to6/9_0" departPos="5.10" departSpeed="0.00" departDelay="-0.80" arrival="164.00" arrivalLane="7/3to8/3_1" arrivalPos="103.90" arrivalSpeed="13.14" duration="147.00" routeLength="930.00" waitSteps="40" timeLoss="71.31" rerouteNo="0" devices="tripinfo_89" vType="DEFAULT_VEHTYPE" vaporized=""/>
    <tripinfo id="68" depart="13.00" departLane="3/6to3/5_0" departPos="5.10" departSpeed="0.00" departDelay="-0.60" arrival="164.00" arrivalLane="6/1to6/0_0" arrivalPos="103.90" arrivalSpeed="13.84" duration="151.00" routeLength="930.00" waitSteps="54" timeLoss="74.83" rerouteNo="0" devices="tripinfo_68" vType="DEFAULT_VEHTYPE" vaporized=""/>
    <tripinfo id="12" depart="2.00" departLane="5/7to5/6_0" departPos="5.10" departSpeed="0.00" departDelay="-0.40" arrival="166.00" arrivalLane="8/1to9/1_1" arrivalPos="103.90" arrivalSpeed="13.70" duration="164.00" routeLength="1033.90" waitSteps="59" timeLoss="78.90" rerouteNo="0" devices="tripinfo_12" vType="DEFAULT_VEHTYPE" vaporized=""/>
    <tripinfo id="34" depart="6.00" departLane="3/9to3/8_0" departPos="5.10" departSpeed="0.00" departDelay="-0.80" arrival="174.00" arrivalLane="7/2to8/2_1" arrivalPos="103.90" arrivalSpeed="13.59" duration="168.00" routeLength="1241.70" waitSteps="51" timeLoss="65.26" rerouteNo="0" devices="tripinfo_34" vType="DEFAULT_VEHTYPE" vaporized=""/>
    <tripinfo id="32" depart="6.00" departLane="4/7to4/6_0" departPos="5.10" departSpeed="0.00" departDelay="-0.40" arrival="181.00" arrivalLane="0/0to1/0_0" arrivalPos="105.40" arrivalSpeed="13.64" duration="175.00" routeLength="1244.70" waitSteps="52" timeLoss="73.16" rerouteNo="0" devices="tripinfo_32" vType="DEFAULT_VEHTYPE" vaporized=""/>
    <tripinfo id="323" depart="64.00" departLane="1/2to0/2_0" departPos="5.10" departSpeed="0.00" departDelay="-0.60" arrival="181.00" arrivalLane="0/8to0/9_1" arrivalPos="105.40" arrivalSpeed="13.71" duration="117.00" routeLength="827.60" waitSteps="36" timeLoss="49.24" rerouteNo="0" devices="tripinfo_323" vType="DEFAULT_VEHTYPE" vaporized=""/>
    <tripinfo id="101" depart="20.00" departLane="8/9to8/8_0" departPos="5.10" departSpeed="0.00" departDelay="-0.20" arrival="185.00" arrivalLane="6/3to6/2_0" arrivalPos="103.90" arrivalSpeed="7.49" duration="165.00" routeLength="930.00" waitSteps="65" timeLoss="89.39" rerouteNo="0" devices="tripinfo_101" vType="DEFAULT_VEHTYPE" vaporized=""/>
    <tripinfo id="2" depart="1.00" departLane="0/3to0/2_0" departPos="5.10" departSpeed="0.00" departDelay="0.60" arrival="187.00" arrivalLane="8/3to8/4_0" arrivalPos="103.90" arrivalSpeed="7.05" duration="186.00" routeLength="1137.80" waitSteps="59" timeLoss="93.69" rerouteNo="0" devices="tripinfo_2" vType="DEFAULT_VEHTYPE" vaporized=""/>
    <tripinfo id="0a" depart="22.00" departLane="8/9to8/8_0" departPos="0.00" departSpeed="0.00" departDelay="22.00" arrival="189.00" arrivalLane="6/3to6/2_0" arrivalPos="103.90" arrivalSpeed="9.69" duration="167.00" routeLength="935.10" waitSteps="65" timeLoss="116.40" rerouteNo="0" devices="tripinfo_0a" vType="emergency" vaporized=""/>
    <tripinfo id="172" depart="34.00" departLane="3/4to4/4_0" departPos="5.10" departSpeed="0.00" departDelay="-0.40" arrival="198.00" arrivalLane="8/9to9/9_0" arrivalPos="105.40" arrivalSpeed="13.69" duration="164.00" routeLength="1139.30" waitSteps="46" timeLoss="71.07" rerouteNo="0" devices="tripinfo_172" vType="DEFAULT_VEHTYPE" vaporized=""/>
    <tripinfo id="228" depart="45.00" departLane="4/5to4/4_0" departPos="5.10" departSpeed="0.00" departDelay="-0.60" arrival="198.00" arrivalLane="8/0to9/0_0" arrivalPos="105.40" arrivalSpeed="12.87" duration="153.00" routeLength="1035.40" waitSteps="51" timeLoss="67.99" rerouteNo="0" devices="tripinfo_228" vType="DEFAULT_VEHTYPE" vaporized=""/>
    <tripinfo id="54" depart="10.00" departLane="9/0to8/0_0" departPos="5.10" departSpeed="0.00" departDelay="-0.80" arrival="198.00" arrivalLane="1/1to1/0_1" arrivalPos="103.90" arrivalSpeed="13.26" duration="188.00" routeLength="1035.40" waitSteps="72" timeLoss="104.27" rerouteNo="0" devices="tripinfo_54" vType="DEFAULT_VEHTYPE" vaporized=""/>
    <tripinfo id="98" depart="19.00" departLane="9/6to8/6_0" departPos="5.10" departSpeed="0.00" departDelay="-0.60" arrival="198.00" arrivalLane="2/5to2/4_1" arrivalPos="103.90" arrivalSpeed="9.19" duration="179.00" routeLength="930.00" waitSteps="73" timeLoss="102.20" rerouteNo="0" devices="tripinfo_98" vType="DEFAULT_VEHTYPE" vaporized=""/>
    <tripinfo id="70" depart="14.00" departLane="9/7to8/7_0" departPos="5.10" departSpeed="0.00" departDelay="0.00" arrival="200.00" arrivalLane="6/1to5/1_0" arrivalPos="103.90" arrivalSpeed="12.82" duration="186.00" routeLength="1033.90" waitSteps="75" timeLoss="101.53" rerouteNo="0" devices="tripinfo_70" vType="DEFAULT_VEHTYPE" vaporized=""/>
    <tripinfo id="63" depart="12.00" departLane="9/4to9/3_0" departPos="5.10" departSpeed="0.00" departDelay="-0.60" arrival="201.00" arrivalLane="1/4to1/5_1" arrivalPos="103.90" arrivalSpeed="12.99" duration="189.00" routeLength="1137.80" waitSteps="68" timeLoss="96.69" rerouteNo="0" devices="tripinfo_63" vType="DEFAULT_VEHTYPE" vaporized=""/>
    <tripinfo id="97" depart="19.00" departLane="7/6to7/7_0" departPos="5.10" departSpeed="0.00" departDelay="-0.40" arrival="202.00" arrivalLane="1/5to0/5_0" arrivalPos="103.90" arrivalSpeed="13.66" duration="183.00" routeLength="1033.90" waitSteps="70" timeLoss="98.17" rerouteNo="0" devices="tripinfo_97" vType="DEFAULT_VEHTYPE" vaporized=""/>
    <tripinfo id="231" depart="46.00" departLane="5/8to6/8_0" departPos="5.10" departSpeed="0.00" departDelay="-0.20" arrival="202.00" arrivalLane="6/1to5/1_0" arrivalPos="103.90" arrivalSpeed="12.97" duration="156.00" routeLength="930.00" waitSteps="57" timeLoss="80.62" rerouteNo="0" devices="tripinfo_231" vType="DEFAULT_VEHTYPE" vaporized=""/>
    <tripinfo id="23" depart="4.00" departLane="7/0to6/0_0" departPos="5.10" departSpeed="0.00" departDelay="-0.60" arrival="202.00" arrivalLane="5/6to5/7_0" arrivalPos="103.90" arrivalSpeed="12.71" duration="198.00" routeLength="930.00" waitSteps="105" timeLoss="122.23" rerouteNo="0" devices="tripinfo_23" vType="DEFAULT_VEHTYPE" vaporized=""/>
    <tripinfo id="174" depart="34.00" departLane="9/1to9/0_0" departPos="5.10" departSpeed="0.00" departDelay="-0.80" arrival="204.00" arrivalLane="3/2to2/2_1" arrivalPos="103.90" arrivalSpeed="13.85" duration="170.00" routeLength="1036.90" waitSteps="64" timeLoss="86.11" rerouteNo="0" devices="tripinfo_174" vType="DEFAULT_VEHTYPE" vaporized=""/>
    <tripinfo id="343" depart="70.00" departLane="5/9to6/9_0" departPos="5.10" departSpeed="0.00" departDelay="1.40" arrival="206.00" arrivalLane="6/1to7/1_1" arrivalPos="103.90" arrivalSpeed="12.89" duration="136.00" routeLength="1033.90" waitSteps="25" timeLoss="51.78" rerouteNo="0" devices="tripinfo_343" vType="DEFAULT_VEHTYPE" vaporized=""/>
    <tripinfo id="55" depart="11.00" departLane="8/4to8/5_0" departPos="5.10" departSpeed="0.00" departDelay="0.00" arrival="206.00" arrivalLane="2/6to2/7_0" arrivalPos="103.90" arrivalSpeed="3.58" duration="195.00" routeLength="930.00" waitSteps="88" timeLoss="119.50" rerouteNo="0" devices="tripinfo_55" vType="DEFAULT_VEHTYPE" vaporized=""/>
    <tripinfo id="43" depart="8.00" departLane="9/8to9/9_0" departPos="5.10" departSpeed="0.00" departDelay="-0.60" arrival="207.00" arrivalLane="1/8to2/8_1" arrivalPos="103.90" arrivalSpeed="13.22" duration="199.00" routeLength="1140.80" waitSteps="72" timeLoss="105.26" rerouteNo="0" devices="tripinfo_43" vType="DEFAULT_VEHTYPE" vaporized=""/>
    <tripinfo id="210" depart="42.00" departLane="1/9to2/9_0" departPos="5.10" departSpeed="0.00" departDelay="0.00" arrival="207.00" arrivalLane="2/3to2/2_0" arrivalPos="103.90" arrivalSpeed="13.25" duration="165.00" routeLength="826.10" waitSteps="78" timeLoss="97.86" rerouteNo="0" devices="tripinfo_210" vType="DEFAULT_VEHTYPE" vaporized=""/>
    <tripinfo id="192" depart="38.00" departLane="4/1to3/1_0" departPos="5.10" departSpeed="0.00" departDelay="-0.40" arrival="207.00" arrivalLane="0/9to1/9_0" arrivalPos="105.40" arrivalSpeed="9.87" duration="169.00" routeLength="1348.60" waitSteps="43" timeLoss="59.50" rerouteNo="0" devices="tripinfo_192" vType="DEFAULT_VEHTYPE" vaporized=""/>
    <tripinfo id="122" depart="24.00" departLane="6/0to6/1_0" departPos="5.10" departSpeed="0.00" departDelay="-0.40" arrival="208.00" arrivalLane="3/7to2/7_0" arrivalPos="103.90" arrivalSpeed="10.68" duration="184.00" routeLength="1137.80" waitSteps="60" timeLoss="90.63" rerouteNo="0" devices="tripinfo_122" vType="DEFAULT_VEHTYPE" vaporized=""/>
    <tripinfo id="59" depart="11.00" departLane="3/4to4/4_0" departPos="5.10" departSpeed="0.00" departDelay="-0.80" arrival="208.00" arrivalLane="9/9to9/8_0" arrivalPos="105.40" arrivalSpeed="12.56" duration="197.00" routeLength="1244.70" waitSteps="67" timeLoss="95.50" rerouteNo="0" devices="tripinfo_59" vType="DEFAULT_VEHTYPE" vaporized=""/>
    <tripinfo id="45" depart="9.00" departLane="6/2to6/3_0" departPos="5.10" departSpeed="0.00" departDelay="0.00" arrival="208.00" arrivalLane="2/8to2/9_0" arrivalPos="103.90" arrivalSpeed="5.58" duration="199.00" routeLength="1137.80" waitSteps="78" timeLoss="106.14" rerouteNo="0" devices="tripinfo_45" vType="DEFAULT_VEHTYPE" vaporized=""/>
    <tripinfo id="76" depart="15.00" departLane="6/1to6/2_0" departPos="5.10" departSpeed="0.00" departDelay="-0.20" arrival="209.00" arrivalLane="4/8to3/8_0" arrivalPos="103.90" arrivalSpeed="10.77" duration="194.00" routeLength="1033.90" waitSteps="73" timeLoss="109.31" rerouteNo="0" devices="tripinfo_76" vType="DEFAULT_VEHTYPE" vaporized=""/>
    <tripinfo id="41" depart="8.00" departLane="6/0to6/1_0" departPos="5.10" departSpeed="0.00" departDelay="-0.20" arrival="211.00" arrivalLane="4/8to4/7_1" arrivalPos="103.90" arrivalSpeed="13.58" duration="203.00" routeLength="1137.80" waitSteps="83" timeLoss="110.40" rerouteNo="0" devices="tripinfo_41" vType="DEFAULT_VEHTYPE" vaporized=""/>
    <tripinfo id="46" depart="9.00" departLane="5/2to5/3_0" departPos="5.10" departSpeed="0.00" departDelay="-0.20" arrival="211.00" arrivalLane="1/8to1/9_0" arrivalPos="103.90" arrivalSpeed="8.56" duration="202.00" routeLength="1137.80" waitSteps="74" timeLoss="108.71" rerouteNo="0" devices="tripinfo_46" vType="DEFAULT_VEHTYPE" vaporized=""/>
    <tripinfo id="13" depart="2.00" departLane="9/0to8/0_0" departPos="5.10" departSpeed="0.00" departDelay="-0.60" arrival="213.00" arrivalLane="4/6to4/7_1" arrivalPos="103.90" arrivalSpeed="13.88" duration="211.00" routeLength="1243.20" waitSteps="80" timeLoss="108.97" rerouteNo="0" devices="tripinfo_13" vType="DEFAULT_VEHTYPE" vaporized=""/>
    <tripinfo id="8" depart="1.00" departLane="7/1to6/1_0" departPos="5.10" departSpeed="0.00" departDelay="-0.60" arrival="213.00" arrivalLane="3/8to3/9_0" arrivalPos="103.90" arrivalSpeed="12.91" duration="212.00" routeLength="1241.70" waitSteps="82" timeLoss="110.45" rerouteNo="0" devices="tripinfo_8" vType="DEFAULT_VEHTYPE" vaporized=""/>
    <tripinfo id="106" depart="21.00" departLane="8/4to8/5_0" departPos="5.10" departSpeed="0.00" departDelay="-0.20" arrival="215.00" arrivalLane="3/8to3/9_0" arrivalPos="103.90" arrivalSpeed="13.06" duration="194.00" routeLength="1033.90" waitSteps="77" timeLoss="109.57" rerouteNo="0" devices="tripinfo_106" vType="DEFAULT_VEHTYPE" vaporized=""/>
    <tripinfo id="7" depart="1.00" departLane="4/6to5/6_0" departPos="5.10" departSpeed="0.00" departDelay="-0.40" arrival="215.00" arrivalLane="2/0to1/0_0" arrivalPos="103.90" arrivalSpeed="13.82" duration="214.00" routeLength="1137.80" waitSteps="90" timeLoss="121.70" rerouteNo="0" devices="tripinfo_7" vType="DEFAULT_VEHTYPE" vaporized=""/>
    <tripinfo id="333" depart="66.00" departLane="6/2to6/3_0" departPos="5.10" departSpeed="0.00" departDelay="-0.60" arrival="216.00" arrivalLane="9/7to9/8_1" arrivalPos="103.90" arrivalSpeed="12.71" duration="150.00" routeLength="930.00" waitSteps="53" timeLoss="74.36" rerouteNo="0" devices="tripinfo_333" vType="DEFAULT_VEHTYPE" vaporized=""/>
    <tripinfo id="102" depart="20.00" departLane="6/1to6/2_0" departPos="5.10" departSpeed="0.00" departDelay="-0.40" arrival="216.00" arrivalLane="5/9to5/8_1" arrivalPos="103.90" arrivalSpeed="12.78" duration="196.00" routeLength="1033.90" waitSteps="80" timeLoss="112.28" rerouteNo="0" devices="tripinfo_102" vType="DEFAULT_VEHTYPE" vaporized=""/>
    <tripinfo id="220" depart="44.00" departLane="6/8to6/9_0" departPos="5.10" departSpeed="0.00" departDelay="0.00" arrival="216.00" arrivalLane="9/3to9/2_0" arrivalPos="103.90" arrivalSpeed="12.62" duration="172.00" routeLength="1137.80" waitSteps="40" timeLoss="79.48" rerouteNo="0" devices="tripinfo_220" vType="DEFAULT_VEHTYPE" vaporized=""/>
    <tripinfo id="123" depart="24.00" departLane="8/6to7/6_0" departPos="5.10" departSpeed="0.00" departDelay="-0.60" arrival="216.00" arrivalLane="1/5to1/6_1" arrivalPos="103.90" arrivalSpeed="13.38" duration="192.00" routeLength="930.00" waitSteps="85" timeLoss="116.58" rerouteNo="0" devices="tripinfo_123" vType="DEFAULT_VEHTYPE" vaporized=""/>
    <tripinfo id="238" depart="47.00" departLane="7/8to7/9_0" departPos="5.10" departSpeed="0.00" departDelay="-0.60" arrival="217.00" arrivalLane="7/1to8/1_0" arrivalPos="103.90" arrivalSpeed="5.85" duration="170.00" routeLength="1033.90" waitSteps="57" timeLoss="85.70" rerouteNo="0" devices="tripinfo_238" vType="DEFAULT_VEHTYPE" vaporized=""/>
    <tripinfo id="144" depart="28.00" departLane="0/7to1/7_0" departPos="5.10" departSpeed="0.00" departDelay="-0.80" arrival="217.00" arrivalLane="6/6to7/6_0" arrivalPos="103.90" arrivalSpeed="9.89" duration="189.00" routeLength="826.10" waitSteps="84" timeLoss="122.03" rerouteNo="0" devices="tripinfo_144" vType="DEFAULT_VEHTYPE" vaporized=""/>
    <tripinfo id="250" depart="50.00" departLane="8/0to9/0_0" departPos="5.10" departSpeed="0.00" departDelay="0.00" arrival="217.00" arrivalLane="8/7to9/7_0" arrivalPos="103.90" arrivalSpeed="13.54" duration="167.00" routeLength="1036.90" waitSteps="62" timeLoss="84.17" rerouteNo="0" devices="tripinfo_250" vType="DEFAULT_VEHTYPE" vaporized=""/>
    <tripinfo id="129" depart="25.00" departLane="4/0to5/0_0" departPos="5.10" departSpeed="0.00" departDelay="-0.80" arrival="218.00" arrivalLane="5/8to5/9_1" arrivalPos="103.90" arrivalSpeed="13.86" duration="193.00" routeLength="1033.90" waitSteps="90" timeLoss="107.68" rerouteNo="0" devices="tripinfo_129" vType="DEFAULT_VEHTYPE" vaporized=""/>
    <tripinfo id="151" depart="30.00" departLane="9/5to8/5_0" departPos="5.10" departSpeed="0.00" departDelay="-0.20" arrival="218.00" arrivalLane="2/2to2/1_0" arrivalPos="103.90" arrivalSpeed="12.71" duration="188.00" routeLength="1137.80" waitSteps="57" timeLoss="94.34" rerouteNo="0" devices="tripinfo_151" vType="DEFAULT_VEHTYPE" vaporized=""/>
</tripinfos>
