<?xml version="1.0" encoding="UTF-8"?>

<!-- generated on 07/02/2015 18:01:14 by SUMO gui Version 0.22.0
<?xml version="1.0" encoding="UTF-8"?>

<configuration xmlns:xsi="http://www.w3.org/2001/XMLSchema-instance" xsi:noNamespaceSchemaLocation="http://sumo.dlr.de/xsd/sumo-gui.exeConfiguration.xsd">

    <input>
        <net-file value="ottawa.net.xml"/>
        <route-files value="rottawa.rou.xml"/>
    </input>

    <output>
        <tripinfo-output value="tripinfo.xml"/>
        <save-state.prefix value="state"/>
    </output>

    <time>
        <begin value="0"/>
    </time>

    <emissions>
        <phemlight-path value="./PHEMlight/"/>
    </emissions>

    <traci_server>
        <remote-port value="8876"/>
    </traci_server>

</configuration>
-->

<tripinfos xmlns:xsi="http://www.w3.org/2001/XMLSchema-instance" xsi:noNamespaceSchemaLocation="http://sumo.dlr.de/xsd/tripinfo_file.xsd">
    <tripinfo id="6" depart="6.00" departLane="-76423150#3_0" departPos="5.10" departSpeed="0.00" departDelay="0.00" arrival="20.00" arrivalLane="-76423150#2_0" arrivalPos="40.63" arrivalSpeed="13.72" duration="14.00" routeLength="134.51" waitSteps="0" timeLoss="3.54" rerouteNo="0" devices="tripinfo_6" vType="DEFAULT_VEHTYPE" vaporized=""/>
    <tripinfo id="14" depart="14.00" departLane="-76442648#3_0" departPos="5.10" departSpeed="0.00" departDelay="0.00" arrival="53.00" arrivalLane="76445041#1_0" arrivalPos="70.28" arrivalSpeed="13.25" duration="39.00" routeLength="379.34" waitSteps="0" timeLoss="7.85" rerouteNo="0" devices="tripinfo_14" vType="DEFAULT_VEHTYPE" vaporized=""/>
    <tripinfo id="0a" depart="21.00" departLane="-76420924#3_0" departPos="0.00" departSpeed="0.00" departDelay="21.00" arrival="96.00" arrivalLane="76423077_0" arrivalPos="73.94" arrivalSpeed="26.00" duration="75.00" routeLength="1773.27" waitSteps="0" timeLoss="31.75" rerouteNo="0" devices="tripinfo_0a" vType="emergency" vaporized=""/>
    <tripinfo id="52" depart="52.00" departLane="-76420824#0_0" departPos="5.10" departSpeed="0.00" departDelay="0.00" arrival="99.00" arrivalLane="-76444642#4_0" arrivalPos="75.07" arrivalSpeed="12.74" duration="47.00" routeLength="534.63" waitSteps="0" timeLoss="6.24" rerouteNo="0" devices="tripinfo_52" vType="DEFAULT_VEHTYPE" vaporized=""/>
    <tripinfo id="80" depart="80.00" departLane="-76443957#0_0" departPos="5.10" departSpeed="0.00" departDelay="0.00" arrival="110.00" arrivalLane="76444642#1_0" arrivalPos="25.31" arrivalSpeed="12.65" duration="30.00" routeLength="248.02" waitSteps="0" timeLoss="8.16" rerouteNo="0" devices="tripinfo_80" vType="DEFAULT_VEHTYPE" vaporized=""/>
    <tripinfo id="77" depart="77.00" departLane="76422369#1_0" departPos="5.10" departSpeed="0.00" departDelay="0.00" arrival="117.00" arrivalLane="-76420068#1_1" arrivalPos="67.91" arrivalSpeed="17.57" duration="40.00" routeLength="603.17" waitSteps="0" timeLoss="13.42" rerouteNo="0" devices="tripinfo_77" vType="DEFAULT_VEHTYPE" vaporized=""/>
    <tripinfo id="54" depart="54.00" departLane="76420688#7_0" departPos="5.10" departSpeed="0.00" departDelay="0.00" arrival="125.00" arrivalLane="76419334#9_1" arrivalPos="68.56" arrivalSpeed="12.65" duration="71.00" routeLength="577.09" waitSteps="9" timeLoss="36.53" rerouteNo="0" devices="tripinfo_54" vType="DEFAULT_VEHTYPE" vaporized=""/>
    <tripinfo id="16" depart="16.00" departLane="-76444617#0_0" departPos="5.10" departSpeed="0.00" departDelay="0.00" arrival="137.00" arrivalLane="76423507#6_0" arrivalPos="40.72" arrivalSpeed="13.00" duration="121.00" routeLength="459.99" waitSteps="62" timeLoss="88.12" rerouteNo="0" devices="tripinfo_16" vType="DEFAULT_VEHTYPE" vaporized=""/>
    <tripinfo id="67" depart="67.00" departLane="89794453#4_0" departPos="5.10" departSpeed="0.00" departDelay="0.00" arrival="164.00" arrivalLane="-76423507#0_0" arrivalPos="40.23" arrivalSpeed="12.88" duration="97.00" routeLength="677.48" waitSteps="18" timeLoss="53.82" rerouteNo="0" devices="tripinfo_67" vType="DEFAULT_VEHTYPE" vaporized=""/>
    <tripinfo id="20" depart="20.00" departLane="89794451#3_0" departPos="5.10" departSpeed="0.00" departDelay="0.00" arrival="165.00" arrivalLane="275827961#1_0" arrivalPos="68.01" arrivalSpeed="12.72" duration="145.00" routeLength="661.46" waitSteps="39" timeLoss="80.37" rerouteNo="0" devices="tripinfo_20" vType="DEFAULT_VEHTYPE" vaporized=""/>
    <tripinfo id="13" depart="13.00" departLane="-76420924#3_0" departPos="5.10" departSpeed="0.00" departDelay="0.00" arrival="165.00" arrivalLane="76423077_0" arrivalPos="73.94" arrivalSpeed="18.40" duration="152.00" routeLength="1900.66" waitSteps="0" timeLoss="28.06" rerouteNo="1" devices="tripinfo_13" vType="DEFAULT_VEHTYPE" vaporized=""/>
    <tripinfo id="132" depart="132.00" departLane="-76444376#2_0" departPos="5.10" departSpeed="0.00" departDelay="0.00" arrival="176.00" arrivalLane="76422992#1_0" arrivalPos="76.96" arrivalSpeed="12.59" duration="44.00" routeLength="397.63" waitSteps="0" timeLoss="11.85" rerouteNo="0" devices="tripinfo_132" vType="DEFAULT_VEHTYPE" vaporized=""/>
    <tripinfo id="45" depart="45.00" departLane="76420774_0" departPos="5.10" departSpeed="0.00" departDelay="0.00" arrival="178.00" arrivalLane="76420444#3_1" arrivalPos="44.76" arrivalSpeed="15.08" duration="133.00" routeLength="1246.04" waitSteps="30" timeLoss="67.89" rerouteNo="0" devices="tripinfo_45" vType="DEFAULT_VEHTYPE" vaporized=""/>
    <tripinfo id="8" depart="8.00" departLane="-76446156#0_0" departPos="5.10" departSpeed="0.00" departDelay="0.00" arrival="178.00" arrivalLane="76444642#1_0" arrivalPos="25.31" arrivalSpeed="13.27" duration="170.00" routeLength="1733.52" waitSteps="28" timeLoss="55.85" rerouteNo="0" devices="tripinfo_8" vType="DEFAULT_VEHTYPE" vaporized=""/>
    <tripinfo id="55" depart="55.00" departLane="-76445142_0" departPos="5.10" departSpeed="0.00" departDelay="0.00" arrival="195.00" arrivalLane="76445826#0_0" arrivalPos="177.92" arrivalSpeed="13.10" duration="140.00" routeLength="1140.38" waitSteps="27" timeLoss="61.28" rerouteNo="0" devices="tripinfo_55" vType="DEFAULT_VEHTYPE" vaporized=""/>
    <tripinfo id="66" depart="66.00" departLane="76422992#4_0" departPos="5.10" departSpeed="0.00" departDelay="0.00" arrival="198.00" arrivalLane="76419751#0_1" arrivalPos="69.21" arrivalSpeed="18.12" duration="132.00" routeLength="814.97" waitSteps="56" timeLoss="81.61" rerouteNo="0" devices="tripinfo_66" vType="DEFAULT_VEHTYPE" vaporized=""/>
    <tripinfo id="136" depart="136.00" departLane="-76424622#1_0" departPos="5.10" departSpeed="0.00" departDelay="0.00" arrival="208.00" arrivalLane="-76420104#6_1" arrivalPos="69.30" arrivalSpeed="27.24" duration="72.00" routeLength="603.40" waitSteps="24" timeLoss="46.72" rerouteNo="0" devices="tripinfo_136" vType="DEFAULT_VEHTYPE" vaporized=""/>
    <tripinfo id="27" depart="27.00" departLane="-76444338#14_0" departPos="0.20" departSpeed="0.00" departDelay="0.00" arrival="208.00" arrivalLane="76444221_0" arrivalPos="68.70" arrivalSpeed="12.68" duration="181.00" routeLength="741.67" waitSteps="105" timeLoss="141.26" rerouteNo="0" devices="tripinfo_27" vType="DEFAULT_VEHTYPE" vaporized=""/>
    <tripinfo id="39" depart="39.00" departLane="76423316#0_0" departPos="5.10" departSpeed="0.00" departDelay="0.00" arrival="208.00" arrivalLane="-76424253#2_0" arrivalPos="35.43" arrivalSpeed="12.65" duration="169.00" routeLength="1229.89" waitSteps="43" timeLoss="87.32" rerouteNo="0" devices="tripinfo_39" vType="DEFAULT_VEHTYPE" vaporized=""/>
    <tripinfo id="126" depart="126.00" departLane="-76444338#9_0" departPos="5.10" departSpeed="0.00" departDelay="0.00" arrival="211.00" arrivalLane="-76730198#1_0" arrivalPos="128.76" arrivalSpeed="13.14" duration="85.00" routeLength="570.49" waitSteps="28" timeLoss="39.86" rerouteNo="0" devices="tripinfo_126" vType="DEFAULT_VEHTYPE" vaporized=""/>
    <tripinfo id="158" depart="158.00" departLane="76444067#0_0" departPos="5.10" departSpeed="0.00" departDelay="0.00" arrival="211.00" arrivalLane="76444169#0_0" arrivalPos="114.18" arrivalSpeed="21.89" duration="53.00" routeLength="696.95" waitSteps="0" timeLoss="15.88" rerouteNo="0" devices="tripinfo_158" vType="DEFAULT_VEHTYPE" vaporized=""/>
    <tripinfo id="75" depart="75.00" departLane="-76422525#1_0" departPos="5.10" departSpeed="0.00" departDelay="0.00" arrival="225.00" arrivalLane="76419772#3_0" arrivalPos="82.01" arrivalSpeed="13.33" duration="150.00" routeLength="965.15" waitSteps="62" timeLoss="102.96" rerouteNo="0" devices="tripinfo_75" vType="DEFAULT_VEHTYPE" vaporized=""/>
    <tripinfo id="196" depart="196.00" departLane="-76443957#1_0" departPos="5.10" departSpeed="0.00" departDelay="0.00" arrival="226.00" arrivalLane="-76422422#2_0" arrivalPos="108.67" arrivalSpeed="13.39" duration="30.00" routeLength="305.39" waitSteps="0" timeLoss="4.08" rerouteNo="0" devices="tripinfo_196" vType="DEFAULT_VEHTYPE" vaporized=""/>
    <tripinfo id="4" depart="4.00" departLane="76422194#0_0" departPos="5.10" departSpeed="0.00" departDelay="0.00" arrival="228.00" arrivalLane="76419772#1_0" arrivalPos="176.97" arrivalSpeed="12.88" duration="224.00" routeLength="1381.03" waitSteps="103" timeLoss="148.76" rerouteNo="0" devices="tripinfo_4" vType="DEFAULT_VEHTYPE" vaporized=""/>
    <tripinfo id="92" depart="92.00" departLane="-76419334#12_0" departPos="5.10" departSpeed="0.00" departDelay="0.00" arrival="228.00" arrivalLane="145423521#0_0" arrivalPos="9.59" arrivalSpeed="4.99" duration="136.00" routeLength="628.09" waitSteps="60" timeLoss="88.10" rerouteNo="0" devices="tripinfo_92" vType="DEFAULT_VEHTYPE" vaporized=""/>
    <tripinfo id="51" depart="51.00" departLane="242720346#1_0" departPos="3.16" departSpeed="0.00" departDelay="0.00" arrival="230.00" arrivalLane="167467358#1_0" arrivalPos="13.58" arrivalSpeed="5.33" duration="179.00" routeLength="1089.16" waitSteps="69" timeLoss="112.12" rerouteNo="0" devices="tripinfo_51" vType="DEFAULT_VEHTYPE" vaporized=""/>
    <tripinfo id="43" depart="43.00" departLane="-76419228#1_0" departPos="5.10" departSpeed="0.00" departDelay="0.00" arrival="233.00" arrivalLane="76422290_0" arrivalPos="146.27" arrivalSpeed="12.76" duration="190.00" routeLength="1407.48" waitSteps="68" timeLoss="123.55" rerouteNo="0" devices="tripinfo_43" vType="DEFAULT_VEHTYPE" vaporized=""/>
    <tripinfo id="35" depart="35.00" departLane="76444642#0_0" departPos="5.10" departSpeed="0.00" departDelay="0.00" arrival="235.00" arrivalLane="-76444978#0_0" arrivalPos="162.61" arrivalSpeed="13.58" duration="200.00" routeLength="1722.60" waitSteps="47" timeLoss="90.09" rerouteNo="0" devices="tripinfo_35" vType="DEFAULT_VEHTYPE" vaporized=""/>
    <tripinfo id="157" depart="157.00" departLane="76443810#1_0" departPos="0.20" departSpeed="0.00" departDelay="0.00" arrival="239.00" arrivalLane="76419699_0" arrivalPos="164.76" arrivalSpeed="13.70" duration="82.00" routeLength="548.43" waitSteps="16" timeLoss="51.56" rerouteNo="0" devices="tripinfo_157" vType="DEFAULT_VEHTYPE" vaporized=""/>
    <tripinfo id="63" depart="63.00" departLane="76419951_0" departPos="5.10" departSpeed="0.00" departDelay="0.00" arrival="247.00" arrivalLane="76424323_0" arrivalPos="115.23" arrivalSpeed="12.94" duration="184.00" routeLength="1885.21" waitSteps="30" timeLoss="64.70" rerouteNo="0" devices="tripinfo_63" vType="DEFAULT_VEHTYPE" vaporized=""/>
    <tripinfo id="152" depart="152.00" departLane="131749987#4_0" departPos="5.10" departSpeed="0.00" departDelay="0.00" arrival="248.00" arrivalLane="107602623#0_0" arrivalPos="60.94" arrivalSpeed="19.24" duration="96.00" routeLength="801.12" waitSteps="28" timeLoss="56.36" rerouteNo="0" devices="tripinfo_152" vType="DEFAULT_VEHTYPE" vaporized=""/>
    <tripinfo id="5" depart="5.00" departLane="305635230#1_0" departPos="5.10" departSpeed="0.00" departDelay="0.00" arrival="249.00" arrivalLane="-76423197#1_0" arrivalPos="149.64" arrivalSpeed="13.23" duration="244.00" routeLength="1239.63" waitSteps="115" timeLoss="172.87" rerouteNo="0" devices="tripinfo_5" vType="DEFAULT_VEHTYPE" vaporized=""/>
    <tripinfo id="3" depart="3.00" departLane="76445871_0" departPos="5.10" departSpeed="0.00" departDelay="0.00" arrival="252.00" arrivalLane="-76444431#4_0" arrivalPos="0.38" arrivalSpeed="27.15" duration="249.00" routeLength="1206.33" waitSteps="138" timeLoss="184.26" rerouteNo="0" devices="tripinfo_3" vType="DEFAULT_VEHTYPE" vaporized=""/>
    <tripinfo id="33" depart="33.00" departLane="-76423426#1_0" departPos="2.70" departSpeed="0.00" departDelay="0.00" arrival="254.00" arrivalLane="76419605#0_1" arrivalPos="68.57" arrivalSpeed="18.58" duration="221.00" routeLength="1157.37" waitSteps="118" timeLoss="173.84" rerouteNo="0" devices="tripinfo_33" vType="DEFAULT_VEHTYPE" vaporized=""/>
    <tripinfo id="31" depart="31.00" departLane="76443810#4_0" departPos="5.10" departSpeed="0.00" departDelay="0.00" arrival="254.00" arrivalLane="76424082#0_0" arrivalPos="202.82" arrivalSpeed="12.82" duration="223.00" routeLength="1143.57" waitSteps="107" timeLoss="169.97" rerouteNo="0" devices="tripinfo_31" vType="DEFAULT_VEHTYPE" vaporized=""/>
    <tripinfo id="146" depart="146.00" departLane="76423268#3_0" departPos="5.10" departSpeed="0.00" departDelay="0.00" arrival="271.00" arrivalLane="-76419868_0" arrivalPos="100.81" arrivalSpeed="18.88" duration="125.00" routeLength="1345.61" waitSteps="29" timeLoss="57.10" rerouteNo="0" devices="tripinfo_146" vType="DEFAULT_VEHTYPE" vaporized=""/>
    <tripinfo id="119" depart="119.00" departLane="-107602619_0" departPos="5.10" departSpeed="0.00" departDelay="0.00" arrival="271.00" arrivalLane="-76422645#1_0" arrivalPos="68.91" arrivalSpeed="19.00" duration="152.00" routeLength="915.72" waitSteps="78" timeLoss="110.07" rerouteNo="0" devices="tripinfo_119" vType="DEFAULT_VEHTYPE" vaporized=""/>
    <tripinfo id="182" depart="182.00" departLane="76422992#3_0" departPos="5.10" departSpeed="0.00" departDelay="0.00" arrival="272.00" arrivalLane="76422992#0_0" arrivalPos="79.90" arrivalSpeed="13.44" duration="90.00" routeLength="459.77" waitSteps="39" timeLoss="53.47" rerouteNo="0" devices="tripinfo_182" vType="DEFAULT_VEHTYPE" vaporized=""/>
    <tripinfo id="226" depart="226.00" departLane="76445067_0" departPos="5.10" departSpeed="0.00" departDelay="0.00" arrival="274.00" arrivalLane="76444067#0_0" arrivalPos="27.30" arrivalSpeed="7.48" duration="48.00" routeLength="522.71" waitSteps="1" timeLoss="18.94" rerouteNo="0" devices="tripinfo_226" vType="DEFAULT_VEHTYPE" vaporized=""/>
    <tripinfo id="36" depart="36.00" departLane="76424339_0" departPos="5.10" departSpeed="0.00" departDelay="0.00" arrival="277.00" arrivalLane="-76422369#0_0" arrivalPos="5.31" arrivalSpeed="12.80" duration="241.00" routeLength="1951.51" waitSteps="100" timeLoss="131.15" rerouteNo="0" devices="tripinfo_36" vType="DEFAULT_VEHTYPE" vaporized=""/>
    <tripinfo id="203" depart="203.00" departLane="76444446#2_0" departPos="1.99" departSpeed="0.00" departDelay="0.00" arrival="282.00" arrivalLane="-76444338#5_1" arrivalPos="70.03" arrivalSpeed="13.05" duration="79.00" routeLength="639.36" waitSteps="19" timeLoss="35.14" rerouteNo="0" devices="tripinfo_203" vType="DEFAULT_VEHTYPE" vaporized=""/>
    <tripinfo id="150" depart="153.00" departLane="76423137_0" departPos="5.10" departSpeed="0.00" departDelay="3.00" arrival="286.00" arrivalLane="-76421576#3_0" arrivalPos="111.35" arrivalSpeed="13.04" duration="133.00" routeLength="1165.78" waitSteps="47" timeLoss="69.60" rerouteNo="0" devices="tripinfo_150" vType="DEFAULT_VEHTYPE" vaporized=""/>
    <tripinfo id="171" depart="171.00" departLane="76446037#3_0" departPos="5.10" departSpeed="0.00" departDelay="0.00" arrival="288.00" arrivalLane="-76443914#1_0" arrivalPos="12.69" arrivalSpeed="9.06" duration="117.00" routeLength="770.63" waitSteps="33" timeLoss="62.49" rerouteNo="0" devices="tripinfo_171" vType="DEFAULT_VEHTYPE" vaporized=""/>
    <tripinfo id="148" depart="148.00" departLane="-76443747#1_0" departPos="5.10" departSpeed="0.00" departDelay="0.00" arrival="293.00" arrivalLane="76420729_0" arrivalPos="135.57" arrivalSpeed="26.84" duration="145.00" routeLength="2639.77" waitSteps="0" timeLoss="17.79" rerouteNo="0" devices="tripinfo_148" vType="DEFAULT_VEHTYPE" vaporized=""/>
    <tripinfo id="178" depart="181.00" departLane="158611948#10_0" departPos="5.10" departSpeed="0.00" departDelay="3.00" arrival="296.00" arrivalLane="-76423261#0_1" arrivalPos="57.41" arrivalSpeed="26.74" duration="115.00" routeLength="692.05" waitSteps="55" timeLoss="83.01" rerouteNo="0" devices="tripinfo_178" vType="DEFAULT_VEHTYPE" vaporized=""/>
    <tripinfo id="117" depart="117.00" departLane="76423575#0_0" departPos="5.10" departSpeed="0.00" departDelay="0.00" arrival="297.00" arrivalLane="76423449#15_0" arrivalPos="6.30" arrivalSpeed="25.78" duration="180.00" routeLength="658.43" waitSteps="111" timeLoss="147.71" rerouteNo="0" devices="tripinfo_117" vType="DEFAULT_VEHTYPE" vaporized=""/>
    <tripinfo id="208" depart="208.00" departLane="76423292#3_0" departPos="3.32" departSpeed="0.00" departDelay="0.00" arrival="302.00" arrivalLane="131749987#5_0" arrivalPos="181.73" arrivalSpeed="13.32" duration="94.00" routeLength="508.23" waitSteps="33" timeLoss="56.39" rerouteNo="0" devices="tripinfo_208" vType="DEFAULT_VEHTYPE" vaporized=""/>
    <tripinfo id="7" depart="7.00" departLane="76424253#2_0" departPos="5.10" departSpeed="0.00" departDelay="0.00" arrival="306.00" arrivalLane="110965456#1_0" arrivalPos="8.79" arrivalSpeed="4.42" duration="299.00" routeLength="1969.56" waitSteps="100" timeLoss="165.70" rerouteNo="0" devices="tripinfo_7" vType="DEFAULT_VEHTYPE" vaporized=""/>
    <tripinfo id="191" depart="191.00" departLane="4852253#0_0" departPos="1.84" departSpeed="0.00" departDelay="0.00" arrival="309.00" arrivalLane="103438388#2_1" arrivalPos="128.06" arrivalSpeed="24.55" duration="118.00" routeLength="915.74" waitSteps="39" timeLoss="66.66" rerouteNo="0" devices="tripinfo_191" vType="DEFAULT_VEHTYPE" vaporized=""/>
    <tripinfo id="185" depart="185.00" departLane="76444197#0_0" departPos="0.20" departSpeed="0.00" departDelay="0.00" arrival="310.00" arrivalLane="-76443842#4_0" arrivalPos="11.00" arrivalSpeed="12.88" duration="125.00" routeLength="1601.24" waitSteps="14" timeLoss="37.06" rerouteNo="0" devices="tripinfo_185" vType="DEFAULT_VEHTYPE" vaporized=""/>
    <tripinfo id="145" depart="145.00" departLane="76444755#0_0" departPos="5.10" departSpeed="0.00" departDelay="0.00" arrival="313.00" arrivalLane="76443593#1_0" arrivalPos="191.59" arrivalSpeed="26.86" duration="168.00" routeLength="1717.19" waitSteps="49" timeLoss="73.75" rerouteNo="0" devices="tripinfo_145" vType="DEFAULT_VEHTYPE" vaporized=""/>
    <tripinfo id="29" depart="29.00" departLane="-167484294_0" departPos="5.10" departSpeed="0.00" departDelay="0.00" arrival="315.00" arrivalLane="-176008663#1_0" arrivalPos="9.45" arrivalSpeed="4.45" duration="286.00" routeLength="1071.43" waitSteps="141" timeLoss="177.25" rerouteNo="0" devices="tripinfo_29" vType="DEFAULT_VEHTYPE" vaporized=""/>
    <tripinfo id="211" depart="211.00" departLane="89794456_0" departPos="5.10" departSpeed="0.00" departDelay="0.00" arrival="317.00" arrivalLane="76422422#2_0" arrivalPos="109.62" arrivalSpeed="13.54" duration="106.00" routeLength="1303.59" waitSteps="0" timeLoss="22.97" rerouteNo="0" devices="tripinfo_211" vType="DEFAULT_VEHTYPE" vaporized=""/>
    <tripinfo id="199" depart="199.00" departLane="76424162#1_0" departPos="5.10" departSpeed="0.00" departDelay="0.00" arrival="324.00" arrivalLane="76444274_0" arrivalPos="164.33" arrivalSpeed="13.02" duration="125.00" routeLength="919.40" waitSteps="35" timeLoss="67.71" rerouteNo="0" devices="tripinfo_199" vType="DEFAULT_VEHTYPE" vaporized=""/>
    <tripinfo id="242" depart="242.00" departLane="76423268#1_0" departPos="5.10" departSpeed="0.00" departDelay="0.00" arrival="332.00" arrivalLane="107644898#5_0" arrivalPos="74.57" arrivalSpeed="12.71" duration="90.00" routeLength="916.29" waitSteps="13" timeLoss="43.71" rerouteNo="0" devices="tripinfo_242" vType="DEFAULT_VEHTYPE" vaporized=""/>
    <tripinfo id="235" depart="235.00" departLane="-107602618_0" departPos="5.10" departSpeed="0.00" departDelay="0.00" arrival="334.00" arrivalLane="132814501_0" arrivalPos="15.55" arrivalSpeed="1.31" duration="99.00" routeLength="321.12" waitSteps="24" timeLoss="53.84" rerouteNo="0" devices="tripinfo_235" vType="DEFAULT_VEHTYPE" vaporized=""/>
    <tripinfo id="164" depart="164.00" departLane="-76444389#1_0" departPos="5.10" departSpeed="0.00" departDelay="0.00" arrival="334.00" arrivalLane="76444740#3_0" arrivalPos="190.78" arrivalSpeed="27.05" duration="170.00" routeLength="2019.57" waitSteps="32" timeLoss="58.31" rerouteNo="0" devices="tripinfo_164" vType="DEFAULT_VEHTYPE" vaporized=""/>
    <tripinfo id="137" depart="137.00" departLane="132682145#0_0" departPos="5.10" departSpeed="0.00" departDelay="0.00" arrival="335.00" arrivalLane="76419621_0" arrivalPos="151.02" arrivalSpeed="13.59" duration="198.00" routeLength="836.87" waitSteps="44" timeLoss="82.30" rerouteNo="0" devices="tripinfo_137" vType="DEFAULT_VEHTYPE" vaporized=""/>
    <tripinfo id="44" depart="44.00" departLane="158611948#6_0" departPos="5.10" departSpeed="0.00" departDelay="0.00" arrival="337.00" arrivalLane="107621863#0_0" arrivalPos="32.49" arrivalSpeed="4.69" duration="293.00" routeLength="1884.26" waitSteps="120" timeLoss="175.72" rerouteNo="0" devices="tripinfo_44" vType="DEFAULT_VEHTYPE" vaporized=""/>
    <tripinfo id="138" depart="138.00" departLane="258419591_0" departPos="5.10" departSpeed="0.00" departDelay="0.00" arrival="338.00" arrivalLane="76446037#13_0" arrivalPos="78.39" arrivalSpeed="18.63" duration="200.00" routeLength="960.14" waitSteps="106" timeLoss="150.16" rerouteNo="0" devices="tripinfo_138" vType="DEFAULT_VEHTYPE" vaporized=""/>
    <tripinfo id="58" depart="58.00" departLane="-76444809#0_0" departPos="5.10" departSpeed="0.00" departDelay="0.00" arrival="338.00" arrivalLane="-76420510#0_0" arrivalPos="1244.15" arrivalSpeed="13.46" duration="280.00" routeLength="3354.56" waitSteps="29" timeLoss="65.67" rerouteNo="0" devices="tripinfo_58" vType="DEFAULT_VEHTYPE" vaporized=""/>
    <tripinfo id="216" depart="216.00" departLane="76422369#0_0" departPos="5.10" departSpeed="0.00" departDelay="0.00" arrival="342.00" arrivalLane="76445424#2_0" arrivalPos="84.04" arrivalSpeed="13.52" duration="126.00" routeLength="1041.38" waitSteps="38" timeLoss="64.96" rerouteNo="0" devices="tripinfo_216" vType="DEFAULT_VEHTYPE" vaporized=""/>
    <tripinfo id="120" depart="120.00" departLane="76423449#19_0" departPos="5.10" departSpeed="0.00" departDelay="0.00" arrival="342.00" arrivalLane="-76421082#1_0" arrivalPos="6.41" arrivalSpeed="12.71" duration="222.00" routeLength="1651.99" waitSteps="97" timeLoss="153.05" rerouteNo="0" devices="tripinfo_120" vType="DEFAULT_VEHTYPE" vaporized=""/>
</tripinfos>
