<?xml version="1.0" encoding="UTF-8"?>

<!-- generated on 06/02/2015 14:28:40 by SUMO gui Version 0.22.0
<?xml version="1.0" encoding="UTF-8"?>

<configuration xmlns:xsi="http://www.w3.org/2001/XMLSchema-instance" xsi:noNamespaceSchemaLocation="http://sumo.dlr.de/xsd/sumo-gui.exeConfiguration.xsd">

    <input>
        <net-file value="nycmap2.net.xml"/>
        <route-files value="nycr3.rou.xml"/>
    </input>

    <output>
        <tripinfo-output value="tripinfo.xml"/>
        <save-state.prefix value="state"/>
    </output>

    <time>
        <begin value="0"/>
    </time>

    <emissions>
        <phemlight-path value="./PHEMlight/"/>
    </emissions>

    <traci_server>
        <remote-port value="8876"/>
    </traci_server>

</configuration>
-->

<tripinfos xmlns:xsi="http://www.w3.org/2001/XMLSchema-instance" xsi:noNamespaceSchemaLocation="http://sumo.dlr.de/xsd/tripinfo_file.xsd">
    <tripinfo id="17" depart="17.00" departLane="195743326#13_0" departPos="5.10" departSpeed="0.00" departDelay="0.00" arrival="54.00" arrivalLane="195743326#18_0" arrivalPos="75.43" arrivalSpeed="27.61" duration="37.00" routeLength="489.80" waitSteps="4" timeLoss="19.22" rerouteNo="0" devices="tripinfo_17" vType="DEFAULT_VEHTYPE" vaporized=""/>
    <tripinfo id="57" depart="57.00" departLane="5673561#2_0" departPos="5.10" departSpeed="0.00" departDelay="0.00" arrival="80.00" arrivalLane="-5670600#2_1" arrivalPos="256.54" arrivalSpeed="27.33" duration="23.00" routeLength="442.47" waitSteps="0" timeLoss="5.16" rerouteNo="0" devices="tripinfo_57" vType="DEFAULT_VEHTYPE" vaporized=""/>
    <tripinfo id="3" depart="3.00" departLane="195743344#4_0" departPos="5.10" departSpeed="0.00" departDelay="0.00" arrival="85.00" arrivalLane="36801355#1_0" arrivalPos="4.70" arrivalSpeed="21.94" duration="82.00" routeLength="1422.03" waitSteps="1" timeLoss="27.49" rerouteNo="0" devices="tripinfo_3" vType="DEFAULT_VEHTYPE" vaporized=""/>
    <tripinfo id="25" depart="25.00" departLane="195743304#7_0" departPos="5.10" departSpeed="0.00" departDelay="0.00" arrival="103.00" arrivalLane="195743304#8_0" arrivalPos="71.31" arrivalSpeed="18.06" duration="78.00" routeLength="139.71" waitSteps="59" timeLoss="72.26" rerouteNo="0" devices="tripinfo_25" vType="DEFAULT_VEHTYPE" vaporized=""/>
    <tripinfo id="10" depart="10.00" departLane="169267542#4_0" departPos="5.10" departSpeed="0.00" departDelay="0.00" arrival="127.00" arrivalLane="226092572#1_0" arrivalPos="78.14" arrivalSpeed="22.82" duration="117.00" routeLength="790.98" waitSteps="49" timeLoss="85.79" rerouteNo="0" devices="tripinfo_10" vType="DEFAULT_VEHTYPE" vaporized=""/>
    <tripinfo id="60" depart="60.00" departLane="46490540#26_0" departPos="5.10" departSpeed="0.00" departDelay="0.00" arrival="128.00" arrivalLane="46490540#28_1" arrivalPos="68.21" arrivalSpeed="16.70" duration="68.00" routeLength="206.62" waitSteps="39" timeLoss="59.91" rerouteNo="0" devices="tripinfo_60" vType="DEFAULT_VEHTYPE" vaporized=""/>
    <tripinfo id="117" depart="117.00" departLane="5672951#3_0" departPos="5.10" departSpeed="0.00" departDelay="0.00" arrival="190.00" arrivalLane="46522002#1_0" arrivalPos="133.15" arrivalSpeed="27.29" duration="73.00" routeLength="912.53" waitSteps="11" timeLoss="31.92" rerouteNo="0" devices="tripinfo_117" vType="DEFAULT_VEHTYPE" vaporized=""/>
    <tripinfo id="39" depart="39.00" departLane="22904166_0" departPos="1.77" departSpeed="0.00" departDelay="0.00" arrival="196.00" arrivalLane="95181774_0" arrivalPos="74.05" arrivalSpeed="19.88" duration="157.00" routeLength="1055.32" waitSteps="74" timeLoss="115.28" rerouteNo="0" devices="tripinfo_39" vType="DEFAULT_VEHTYPE" vaporized=""/>
    <tripinfo id="1" depart="1.00" departLane="68325061#2_0" departPos="5.10" departSpeed="0.00" departDelay="0.00" arrival="197.00" arrivalLane="5669669#6_0" arrivalPos="263.54" arrivalSpeed="21.00" duration="196.00" routeLength="1931.58" waitSteps="62" timeLoss="115.77" rerouteNo="0" devices="tripinfo_1" vType="DEFAULT_VEHTYPE" vaporized=""/>
    <tripinfo id="0a" depart="21.00" departLane="5672149#0_0" departPos="0.00" departSpeed="0.00" departDelay="21.00" arrival="198.00" arrivalLane="5671315#5_1" arrivalPos="63.26" arrivalSpeed="16.01" duration="177.00" routeLength="1628.77" waitSteps="64" timeLoss="139.94" rerouteNo="0" devices="tripinfo_0a" vType="emergency" vaporized=""/>
    <tripinfo id="92" depart="92.00" departLane="5672036#10_0" departPos="5.10" departSpeed="0.00" departDelay="0.00" arrival="202.00" arrivalLane="-195743304#4_0" arrivalPos="67.77" arrivalSpeed="25.35" duration="110.00" routeLength="467.68" waitSteps="62" timeLoss="82.24" rerouteNo="0" devices="tripinfo_92" vType="DEFAULT_VEHTYPE" vaporized=""/>
    <tripinfo id="8" depart="8.00" departLane="127693103#19_0" departPos="5.10" departSpeed="0.00" departDelay="0.00" arrival="208.00" arrivalLane="221157083#37_0" arrivalPos="71.71" arrivalSpeed="17.72" duration="200.00" routeLength="1235.74" waitSteps="99" timeLoss="152.02" rerouteNo="0" devices="tripinfo_8" vType="DEFAULT_VEHTYPE" vaporized=""/>
    <tripinfo id="23" depart="23.00" departLane="46240204#14_0" departPos="5.10" departSpeed="0.00" departDelay="0.00" arrival="214.00" arrivalLane="46538335#0_0" arrivalPos="302.01" arrivalSpeed="13.53" duration="191.00" routeLength="1379.86" waitSteps="75" timeLoss="124.77" rerouteNo="0" devices="tripinfo_23" vType="DEFAULT_VEHTYPE" vaporized=""/>
    <tripinfo id="101" depart="101.00" departLane="36806661#1_0" departPos="5.10" departSpeed="0.00" departDelay="0.00" arrival="217.00" arrivalLane="118714453#8_2" arrivalPos="17.91" arrivalSpeed="26.91" duration="116.00" routeLength="1261.36" waitSteps="35" timeLoss="68.56" rerouteNo="0" devices="tripinfo_101" vType="DEFAULT_VEHTYPE" vaporized=""/>
    <tripinfo id="45" depart="45.00" departLane="46443684_0" departPos="5.10" departSpeed="0.00" departDelay="0.00" arrival="218.00" arrivalLane="46522008#0_0" arrivalPos="264.50" arrivalSpeed="27.66" duration="173.00" routeLength="2259.79" waitSteps="44" timeLoss="84.35" rerouteNo="0" devices="tripinfo_45" vType="DEFAULT_VEHTYPE" vaporized=""/>
    <tripinfo id="29" depart="29.00" departLane="5672951#1_0" departPos="5.10" departSpeed="0.00" departDelay="0.00" arrival="223.00" arrivalLane="-5670891_0" arrivalPos="26.72" arrivalSpeed="13.20" duration="194.00" routeLength="1642.27" waitSteps="61" timeLoss="116.65" rerouteNo="0" devices="tripinfo_29" vType="DEFAULT_VEHTYPE" vaporized=""/>
    <tripinfo id="100" depart="100.00" departLane="46492012_0" departPos="5.10" departSpeed="0.00" departDelay="0.00" arrival="228.00" arrivalLane="46435621#1_0" arrivalPos="224.05" arrivalSpeed="21.18" duration="128.00" routeLength="995.50" waitSteps="56" timeLoss="83.62" rerouteNo="0" devices="tripinfo_100" vType="DEFAULT_VEHTYPE" vaporized=""/>
    <tripinfo id="56" depart="56.00" departLane="46482539#2_0" departPos="5.10" departSpeed="0.00" departDelay="0.00" arrival="248.00" arrivalLane="194926855#9_0" arrivalPos="69.64" arrivalSpeed="17.46" duration="192.00" routeLength="1259.55" waitSteps="89" timeLoss="139.43" rerouteNo="0" devices="tripinfo_56" vType="DEFAULT_VEHTYPE" vaporized=""/>
    <tripinfo id="144" depart="144.00" departLane="196117039#0_0" departPos="5.10" departSpeed="0.00" departDelay="0.00" arrival="248.00" arrivalLane="46240204#22_0" arrivalPos="72.65" arrivalSpeed="18.18" duration="104.00" routeLength="705.37" waitSteps="33" timeLoss="71.30" rerouteNo="0" devices="tripinfo_144" vType="DEFAULT_VEHTYPE" vaporized=""/>
    <tripinfo id="77" depart="77.00" departLane="5670317#2_0" departPos="5.10" departSpeed="0.00" departDelay="0.00" arrival="253.00" arrivalLane="46520833#1_0" arrivalPos="145.18" arrivalSpeed="22.16" duration="176.00" routeLength="936.15" waitSteps="87" timeLoss="134.83" rerouteNo="0" devices="tripinfo_77" vType="DEFAULT_VEHTYPE" vaporized=""/>
    <tripinfo id="14" depart="14.00" departLane="194926856#0_0" departPos="5.10" departSpeed="0.00" departDelay="0.00" arrival="255.00" arrivalLane="46469720#4_1" arrivalPos="144.52" arrivalSpeed="26.70" duration="241.00" routeLength="2139.82" waitSteps="85" timeLoss="158.53" rerouteNo="0" devices="tripinfo_14" vType="DEFAULT_VEHTYPE" vaporized=""/>
    <tripinfo id="156" depart="156.00" departLane="127693200#1_0" departPos="5.10" departSpeed="0.00" departDelay="0.00" arrival="257.00" arrivalLane="5670836#11_0" arrivalPos="68.21" arrivalSpeed="26.49" duration="101.00" routeLength="1421.44" waitSteps="20" timeLoss="46.27" rerouteNo="0" devices="tripinfo_156" vType="DEFAULT_VEHTYPE" vaporized=""/>
    <tripinfo id="30" depart="30.00" departLane="46334595#2_0" departPos="5.10" departSpeed="0.00" departDelay="0.00" arrival="258.00" arrivalLane="5672483_0" arrivalPos="68.17" arrivalSpeed="12.62" duration="228.00" routeLength="1292.50" waitSteps="99" timeLoss="171.00" rerouteNo="0" devices="tripinfo_30" vType="DEFAULT_VEHTYPE" vaporized=""/>
    <tripinfo id="109" depart="109.00" departLane="198924552#2_0" departPos="5.10" departSpeed="0.00" departDelay="0.00" arrival="260.00" arrivalLane="5672118#2_0" arrivalPos="11.28" arrivalSpeed="13.19" duration="151.00" routeLength="793.37" waitSteps="76" timeLoss="113.53" rerouteNo="0" devices="tripinfo_109" vType="DEFAULT_VEHTYPE" vaporized=""/>
    <tripinfo id="121" depart="124.00" departLane="221157083#11_0" departPos="5.10" departSpeed="0.00" departDelay="3.00" arrival="263.00" arrivalLane="46201630_0" arrivalPos="0.17" arrivalSpeed="27.17" duration="139.00" routeLength="881.70" waitSteps="68" timeLoss="103.32" rerouteNo="0" devices="tripinfo_121" vType="DEFAULT_VEHTYPE" vaporized=""/>
    <tripinfo id="38" depart="38.00" departLane="221157083#21_0" departPos="5.10" departSpeed="0.00" departDelay="0.00" arrival="263.00" arrivalLane="36801164_0" arrivalPos="92.95" arrivalSpeed="21.74" duration="225.00" routeLength="2506.20" waitSteps="73" timeLoss="127.31" rerouteNo="0" devices="tripinfo_38" vType="DEFAULT_VEHTYPE" vaporized=""/>
    <tripinfo id="120" depart="120.00" departLane="5672118#1_0" departPos="5.10" departSpeed="0.00" departDelay="0.00" arrival="267.00" arrivalLane="196117039#5_1" arrivalPos="70.45" arrivalSpeed="26.89" duration="147.00" routeLength="1218.49" waitSteps="67" timeLoss="93.57" rerouteNo="0" devices="tripinfo_120" vType="DEFAULT_VEHTYPE" vaporized=""/>
    <tripinfo id="197" depart="197.00" departLane="5673624_0" departPos="5.10" departSpeed="0.00" departDelay="0.00" arrival="273.00" arrivalLane="222299276#2-AddedOffRampEdge_2" arrivalPos="95.41" arrivalSpeed="27.28" duration="76.00" routeLength="901.23" waitSteps="23" timeLoss="38.55" rerouteNo="0" devices="tripinfo_197" vType="DEFAULT_VEHTYPE" vaporized=""/>
    <tripinfo id="33" depart="33.00" departLane="169269031#4_0" departPos="2.45" departSpeed="0.00" departDelay="0.00" arrival="284.00" arrivalLane="127693383#5_1" arrivalPos="72.72" arrivalSpeed="26.39" duration="251.00" routeLength="2368.60" waitSteps="99" timeLoss="153.06" rerouteNo="0" devices="tripinfo_33" vType="DEFAULT_VEHTYPE" vaporized=""/>
    <tripinfo id="131" depart="131.00" departLane="198924630_0" departPos="5.10" departSpeed="0.00" departDelay="0.00" arrival="286.00" arrivalLane="198595548#0_0" arrivalPos="27.17" arrivalSpeed="14.52" duration="155.00" routeLength="804.15" waitSteps="70" timeLoss="119.18" rerouteNo="0" devices="tripinfo_131" vType="DEFAULT_VEHTYPE" vaporized=""/>
    <tripinfo id="168" depart="168.00" departLane="226041012#0_0" departPos="5.10" departSpeed="0.00" departDelay="0.00" arrival="288.00" arrivalLane="195743182#16_1" arrivalPos="71.71" arrivalSpeed="16.54" duration="120.00" routeLength="996.54" waitSteps="39" timeLoss="73.07" rerouteNo="0" devices="tripinfo_168" vType="DEFAULT_VEHTYPE" vaporized=""/>
    <tripinfo id="135" depart="135.00" departLane="-5670139#2_0" departPos="5.10" departSpeed="0.00" departDelay="0.00" arrival="289.00" arrivalLane="221157083#31_1" arrivalPos="71.23" arrivalSpeed="18.06" duration="154.00" routeLength="586.38" waitSteps="97" timeLoss="130.69" rerouteNo="0" devices="tripinfo_135" vType="DEFAULT_VEHTYPE" vaporized=""/>
    <tripinfo id="37" depart="37.00" departLane="5671401#0_0" departPos="5.10" departSpeed="0.00" departDelay="0.00" arrival="289.00" arrivalLane="116672333#0_1" arrivalPos="0.20" arrivalSpeed="7.69" duration="252.00" routeLength="2388.22" waitSteps="121" timeLoss="158.25" rerouteNo="0" devices="tripinfo_37" vType="DEFAULT_VEHTYPE" vaporized=""/>
    <tripinfo id="122" depart="122.00" departLane="46490540#17_0" departPos="5.10" departSpeed="0.00" departDelay="0.00" arrival="293.00" arrivalLane="46139027#0_1" arrivalPos="74.16" arrivalSpeed="18.27" duration="171.00" routeLength="540.61" waitSteps="107" timeLoss="149.60" rerouteNo="0" devices="tripinfo_122" vType="DEFAULT_VEHTYPE" vaporized=""/>
    <tripinfo id="36" depart="36.00" departLane="5671276#1_0" departPos="5.10" departSpeed="0.00" departDelay="0.00" arrival="295.00" arrivalLane="46490540#10_0" arrivalPos="51.39" arrivalSpeed="27.21" duration="259.00" routeLength="2291.35" waitSteps="109" timeLoss="165.80" rerouteNo="0" devices="tripinfo_36" vType="DEFAULT_VEHTYPE" vaporized=""/>
    <tripinfo id="55" depart="55.00" departLane="127693103#15_0" departPos="5.10" departSpeed="0.00" departDelay="0.00" arrival="296.00" arrivalLane="5671315#1_0" arrivalPos="130.92" arrivalSpeed="24.97" duration="241.00" routeLength="2146.59" waitSteps="114" timeLoss="155.68" rerouteNo="0" devices="tripinfo_55" vType="DEFAULT_VEHTYPE" vaporized=""/>
    <tripinfo id="15" depart="15.00" departLane="46538375#0_0" departPos="1.21" departSpeed="0.00" departDelay="0.00" arrival="297.00" arrivalLane="195743336#0_0" arrivalPos="67.62" arrivalSpeed="18.07" duration="282.00" routeLength="2359.15" waitSteps="120" timeLoss="191.15" rerouteNo="0" devices="tripinfo_15" vType="DEFAULT_VEHTYPE" vaporized=""/>
    <tripinfo id="263" depart="263.00" departLane="5671349#0_0" departPos="5.10" departSpeed="0.00" departDelay="0.00" arrival="297.00" arrivalLane="36185651#0_0" arrivalPos="103.62" arrivalSpeed="21.90" duration="34.00" routeLength="445.03" waitSteps="0" timeLoss="10.13" rerouteNo="0" devices="tripinfo_263" vType="DEFAULT_VEHTYPE" vaporized=""/>
    <tripinfo id="180" depart="180.00" departLane="196117090#14_0" departPos="5.10" departSpeed="0.00" departDelay="0.00" arrival="299.00" arrivalLane="5671401#1_0" arrivalPos="143.39" arrivalSpeed="21.64" duration="119.00" routeLength="806.30" waitSteps="50" timeLoss="82.95" rerouteNo="0" devices="tripinfo_180" vType="DEFAULT_VEHTYPE" vaporized=""/>
    <tripinfo id="5" depart="5.00" departLane="46490540#22_0" departPos="5.10" departSpeed="0.00" departDelay="0.00" arrival="303.00" arrivalLane="221157083#24_1" arrivalPos="77.09" arrivalSpeed="26.86" duration="298.00" routeLength="2279.81" waitSteps="153" timeLoss="210.70" rerouteNo="0" devices="tripinfo_5" vType="DEFAULT_VEHTYPE" vaporized=""/>
    <tripinfo id="105" depart="105.00" departLane="194926856#4_0" departPos="5.10" departSpeed="0.00" departDelay="0.00" arrival="305.00" arrivalLane="118400729#4_0" arrivalPos="75.13" arrivalSpeed="27.46" duration="200.00" routeLength="1939.81" waitSteps="80" timeLoss="116.50" rerouteNo="0" devices="tripinfo_105" vType="DEFAULT_VEHTYPE" vaporized=""/>
    <tripinfo id="228" depart="228.00" departLane="5672991#9_0" departPos="5.10" departSpeed="0.00" departDelay="0.00" arrival="322.00" arrivalLane="169383518#4_2" arrivalPos="1.37" arrivalSpeed="6.10" duration="94.00" routeLength="553.64" waitSteps="54" timeLoss="71.64" rerouteNo="0" devices="tripinfo_228" vType="DEFAULT_VEHTYPE" vaporized=""/>
    <tripinfo id="140" depart="140.00" departLane="194926855#1_0" departPos="5.10" departSpeed="0.00" departDelay="0.00" arrival="322.00" arrivalLane="68668519#4_1" arrivalPos="69.62" arrivalSpeed="19.11" duration="182.00" routeLength="1421.78" waitSteps="82" timeLoss="126.63" rerouteNo="0" devices="tripinfo_140" vType="DEFAULT_VEHTYPE" vaporized=""/>
    <tripinfo id="152" depart="152.00" departLane="68668520#1_0" departPos="5.10" departSpeed="0.00" departDelay="0.00" arrival="326.00" arrivalLane="226041031#5_0" arrivalPos="19.68" arrivalSpeed="12.60" duration="174.00" routeLength="543.01" waitSteps="98" timeLoss="143.50" rerouteNo="0" devices="tripinfo_152" vType="DEFAULT_VEHTYPE" vaporized=""/>
    <tripinfo id="126" depart="126.00" departLane="169383514#0_0" departPos="5.10" departSpeed="0.00" departDelay="0.00" arrival="328.00" arrivalLane="194926851#1_1" arrivalPos="71.79" arrivalSpeed="17.35" duration="202.00" routeLength="1333.04" waitSteps="86" timeLoss="150.17" rerouteNo="0" devices="tripinfo_126" vType="DEFAULT_VEHTYPE" vaporized=""/>
    <tripinfo id="58" depart="58.00" departLane="46522162#1_0" departPos="5.10" departSpeed="0.00" departDelay="0.00" arrival="332.00" arrivalLane="46240204#19_0" arrivalPos="69.58" arrivalSpeed="24.28" duration="274.00" routeLength="1352.19" waitSteps="150" timeLoss="218.97" rerouteNo="0" devices="tripinfo_58" vType="DEFAULT_VEHTYPE" vaporized=""/>
    <tripinfo id="123" depart="123.00" departLane="46201628#0_0" departPos="5.10" departSpeed="0.00" departDelay="0.00" arrival="341.00" arrivalLane="226040999_0" arrivalPos="145.08" arrivalSpeed="22.17" duration="218.00" routeLength="1450.26" waitSteps="107" timeLoss="157.37" rerouteNo="0" devices="tripinfo_123" vType="DEFAULT_VEHTYPE" vaporized=""/>
    <tripinfo id="239" depart="239.00" departLane="46469720#2_0" departPos="5.10" departSpeed="0.00" departDelay="0.00" arrival="346.00" arrivalLane="196117039#38_0" arrivalPos="72.22" arrivalSpeed="27.77" duration="107.00" routeLength="932.41" waitSteps="43" timeLoss="69.42" rerouteNo="0" devices="tripinfo_239" vType="DEFAULT_VEHTYPE" vaporized=""/>
    <tripinfo id="231" depart="231.00" departLane="68674962#35_0" departPos="5.10" departSpeed="0.00" departDelay="0.00" arrival="351.00" arrivalLane="195743182#15_0" arrivalPos="74.33" arrivalSpeed="22.18" duration="120.00" routeLength="1212.42" waitSteps="41" timeLoss="66.19" rerouteNo="0" devices="tripinfo_231" vType="DEFAULT_VEHTYPE" vaporized=""/>
</tripinfos>
